WATER
  400
    1W        W    1   3.482   0.775   0.278 -0.2508 -0.1049  0.1884
    2W        W    2   2.409   1.390   2.054 -0.0291  0.0061  0.0332
    3W        W    3   2.890   3.127   2.943  0.4043 -0.1767  0.2529
    4W        W    4   3.285   3.251   1.048 -0.0030  0.1300  0.2688
    5W        W    5   2.989   2.740   2.525  0.0266  0.1073  0.0228
    6W        W    6   2.819   0.161   2.321  0.0185 -0.0712  0.0005
    7W        W    7   1.126   0.705   0.994 -0.1170  0.0357  0.1067
    8W        W    8   0.776   1.854   0.883  0.2252 -0.0448  0.2122
    9W        W    9   2.333   0.197   2.421  0.2639  0.1819 -0.1659
   10W        W   10   1.615   3.524   0.011 -0.2728  0.1523 -0.2051
   11W        W   11   1.070   3.273   2.746  0.1122 -0.0833 -0.1530
   12W        W   12   1.092   1.901   2.647 -0.0916  0.2130  0.0264
   13W        W   13   1.054   1.565   2.221 -0.2961 -0.4009  0.0789
   14W        W   14   2.588   2.240   1.507  0.0926  0.2300 -0.2323
   15W        W   15   3.293   2.510   2.147  0.0548 -0.0477 -0.1670
   16W        W   16   1.555   3.314   2.224 -0.1423  0.2884 -0.3561
   17W        W   17   0.908   1.340   2.639 -0.2427  0.0236 -0.0443
   18W        W   18   1.479   2.747   0.819  0.0480 -0.0971  0.0306
   19W        W   19   2.052   1.932   2.684  0.0585  0.0127 -0.1553
   20W        W   20   3.358   1.308   3.248  0.0328 -0.0670  0.0279
   21W        W   21   2.267   2.135   3.385  0.2366  0.0984  0.2505
   22W        W   22   1.911   3.129   0.328  0.0013 -0.2286  0.0745
   23W        W   23   2.260   0.753   2.912 -0.0201  0.1772 -0.2325
   24W        W   24   0.729   1.218   2.165  0.0517  0.1338  0.0293
   25W        W   25   3.023   1.484   0.553  0.0443  0.1733  0.1120
   26W        W   26   1.249   2.964   3.098 -0.0323 -0.0296 -0.1289
   27W        W   27   0.745   2.326   1.556  0.1784 -0.0648  0.0289
   28W        W   28   3.334   2.799   3.109  0.1567 -0.5046  0.1421
   29W        W   29   0.328   3.542   1.454  0.0318  0.0228 -0.1589
   30W        W   30   2.211   2.233   0.201  0.0946 -0.0611 -0.2604
   31W        W   31   2.983   2.934   3.464  0.2009 -0.0499  0.1543
   32W        W   32   2.701   3.185   1.736 -0.1623  0.0733 -0.1927
   33W        W   33   2.540   3.358   2.181 -0.2789 -0.1820 -0.0517
   34W        W   34   3.268   2.336   2.662  0.5768  0.0813 -0.2027
   35W        W   35   1.639   3.058   2.655 -0.1793 -0.1240 -0.0101
   36W        W   36   0.163   2.585   1.550  0.0233  0.0950  0.0336
   37W        W   37   3.330   1.857   0.909  0.0139  0.1592 -0.0462
   38W        W   38   0.402   1.627   0.565  0.0088 -0.2048 -0.2058
   39W        W   39   2.946   3.271   2.453 -0.0204 -0.1690 -0.3421
   40W        W   40   3.234   0.498   2.524 -0.1380 -0.0411  0.0637
   41W        W   41   2.686   2.226   3.173 -0.1219  0.1914 -0.0237
   42W        W   42   0.848   0.297   2.100  0.0890 -0.0436  0.1952
   43W        W   43   1.693   1.641   1.318  0.1363  0.0298 -0.2407
   44W        W   44   0.621   1.398   1.088  0.1335 -0.1667 -0.0488
   45W        W   45   2.136   3.088   2.851 -0.0309  0.3166  0.1784
   46W        W   46   1.340   2.373   0.446 -0.2387 -0.1899  0.0593
   47W        W   47   3.428   0.287   0.162  0.3722  0.0628  0.1894
   48W        W   48   1.714   2.051   0.514  0.0542  0.1259 -0.2350
   49W        W   49   0.095   2.946   3.500  0.1747  0.0541  0.0556
   50W        W   50   3.314   2.734   0.118  0.0672  0.0689 -0.0505
   51W        W   51   2.176   0.246   1.498  0.2706 -0.0146 -0.3271
   52W        W   52   0.796   2.275   2.787 -0.3613  0.0426  0.1823
   53W        W   53   1.434   2.342   3.204  0.0004  0.0524 -0.2754
   54W        W   54   2.235   1.974   1.770 -0.0632  0.0336  0.1227
   55W        W   55   0.223   3.576   0.546 -0.1684 -0.1387 -0.0954
   56W        W   56   3.600   0.011   0.983  0.3616  0.0821 -0.0950
   57W        W   57   1.331   1.159   0.885 -0.0188 -0.0323  0.3328
   58W        W   58   0.569   3.239   0.076  0.1177  0.4931 -0.2657
   59W        W   59   2.193   1.345   0.255 -0.0012  0.0905 -0.2241
   60W        W   60   0.619   0.780   0.957  0.1839 -0.1517 -0.1250
   61W        W   61   0.053   0.229   3.345 -0.1481 -0.2531 -0.0814
   62W        W   62   1.585   3.575   2.644 -0.0927  0.1049  0.1937
   63W        W   63   3.234   1.270   0.962 -0.0746 -0.0411 -0.2988
   64W        W   64   0.245   1.367   1.435 -0.0576  0.0296 -0.1467
   65W        W   65   1.683   0.969   2.550  0.1676 -0.0077  0.1442
   66W        W   66   3.621   1.591   2.385 -0.3212  0.3952 -0.4527
   67W        W   67   2.659   0.211   1.390 -0.1166 -0.0370  0.0488
   68W        W   68   2.472   3.427   2.692  0.1692  0.0388  0.3052
   69W        W   69   2.575   1.891   2.165  0.1084 -0.1165 -0.3129
   70W        W   70   3.364   3.550   0.544 -0.0047  0.3147 -0.0062
   71W        W   71   0.871   2.437   0.275  0.1118 -0.1365 -0.0820
   72W        W   72   2.774   2.921   0.349  0.0546 -0.1153 -0.0396
   73W        W   73   0.078   2.561   0.452  0.1694  0.3202  0.1589
   74W        W   74   1.088   2.034   3.121 -0.2666  0.0787  0.0620
   75W        W   75   1.870   1.803   0.124 -0.3615  0.1284  0.3254
   76W        W   76   0.138   2.973   2.969  0.0080  0.1913 -0.1537
   77W        W   77   2.028   0.480   3.418  0.0345  0.2609 -0.1682
   78W        W   78   2.140   2.659   2.603  0.0605 -0.2328 -0.0671
   79W        W   79   1.788   2.760   2.216 -0.0988  0.3293  0.1407
   80W        W   80   1.710   0.822   0.007  0.1033  0.0143 -0.2008
   81W        W   81   0.737   2.066   3.477  0.2437  0.0316  0.0649
   82W        W   82   2.616   1.258   1.430  0.2812  0.2197  0.0632
   83W        W   83   1.824   2.273   1.913 -0.2494  0.1451 -0.0381
   84W        W   84   3.430   1.891   3.441  0.1060 -0.0533 -0.2227
   85W        W   85   0.916   2.938   1.728 -0.3124  0.0309 -0.3254
   86W        W   86   0.258   0.296   2.860 -0.1817  0.1152 -0.0631
   87W        W   87   2.350   0.403   1.020  0.1680 -0.3462  0.2516
   88W        W   88   2.548   2.248   0.613  0.3920 -0.0477  0.0515
   89W        W   89   1.042   2.543   1.966 -0.2106  0.0674 -0.0253
   90W        W   90   1.214   0.558   1.432 -0.5670 -0.0257 -0.0088
   91W        W   91   0.601   0.883   2.649  0.0796  0.1024 -0.2287
   92W        W   92   1.756   1.336   3.541 -0.3685 -0.0469  0.1123
   93W        W   93   3.162   3.232   0.208  0.0955  0.1450  0.0707
   94W        W   94   2.966   1.965   0.544 -0.0648  0.1585  0.1954
   95W        W   95   3.212   2.153   3.090 -0.0540  0.1058 -0.2641
   96W        W   96   0.734   1.314   0.175  0.1530  0.0825 -0.1370
   97W        W   97   0.945   0.935   0.498  0.0093  0.0434 -0.2040
   98W        W   98   1.578   0.790   1.153  0.1587  0.1112  0.1383
   99W        W   99   3.475   3.508   1.509 -0.0102 -0.0343  0.0292
  100W        W  100   2.314   0.673   2.005  0.2141 -0.1483  0.1190
  101W        W  101   3.548   0.629   3.044 -0.2498  0.0390  0.0654
  102W        W  102   0.294   1.170   3.228  0.0435  0.0168  0.1581
  103W        W  103   0.305   0.354   0.216 -0.2360  0.1051 -0.1346
  104W        W  104   1.275   0.383   2.864  0.1895 -0.2815  0.1572
  105W        W  105   1.885   3.019   0.908 -0.1766  0.0334 -0.0756
  106W        W  106   2.143   1.005   3.430  0.1221 -0.2567 -0.4949
  107W        W  107   0.654   1.822   1.431  0.1948 -0.0737  0.2741
  108W        W  108   1.718   1.814   1.756 -0.2214  0.2118  0.1925
  109W        W  109   1.799   2.818   3.122  0.0307  0.1496  0.0311
  110W        W  110   3.615   2.115   1.265 -0.2128 -0.0595 -0.1199
  111W        W  111   0.018   2.449   2.901  0.0615  0.2263 -0.0159
  112W        W  112   0.454   2.826   0.318  0.0782  0.0959  0.1728
  113W        W  113   2.113   3.485   3.560 -0.2377  0.4169  0.0801
  114W        W  114   0.599   0.915   3.537  0.0059 -0.1166  0.1364
  115W        W  115   1.029   2.677   2.692  0.1679 -0.2910  0.1742
  116W        W  116   3.283   0.296   2.050 -0.2118  0.1086  0.2072
  117W        W  117   2.837   0.521   1.997  0.2076 -0.0103 -0.2508
  118W        W  118   3.524   1.054   1.373 -0.1599  0.2234  0.0422
  119W        W  119   1.191   0.095   2.447  0.2175 -0.1053 -0.0420
  120W        W  120   1.806   0.499   2.886  0.4048  0.1567  0.3905
  121W        W  121   0.225   3.496   2.648 -0.1513  0.0928  0.1425
  122W        W  122   1.317   0.864   2.837  0.1447 -0.0122 -0.0923
  123W        W  123   3.017   0.884   1.319  0.1418 -0.1030 -0.3001
  124W        W  124   0.922   0.257   3.213 -0.1942 -0.1057 -0.1244
  125W        W  125   3.277   2.404   0.672  0.0662 -0.1461 -0.0218
  126W        W  126   2.059   0.887   0.322  0.3475  0.0455  0.1952
  127W        W  127   2.678   1.024   1.902 -0.0469  0.1519  0.1361
  128W        W  128   0.428   3.067   1.616  0.1483  0.2198 -0.0855
  129W        W  129   2.936   0.913   2.360 -0.0446 -0.0408  0.1969
  130W        W  130   2.900   2.618   3.001 -0.0569  0.1148  0.1513
  131W        W  131   0.493   2.671   2.695  0.2633 -0.0785 -0.2958
  132W        W  132   0.140   0.190   1.825  0.1774 -0.1209  0.0452
  133W        W  133   3.289   1.789   1.823  0.0443  0.3091 -0.2306
  134W        W  134   0.756   1.818   0.305  0.0989 -0.2664  0.0211
  135W        W  135   1.427   1.211   1.418 -0.1279  0.1567  0.1883
  136W        W  136   2.940   1.533   2.199 -0.2782  0.2153  0.0443
  137W        W  137   0.086   1.395   0.918  0.3721 -0.0513  0.0975
  138W        W  138   1.536   1.685   0.830  0.0132 -0.2408  0.2288
  139W        W  139   1.722   2.291   0.064  0.2088 -0.3303 -0.0096
  140W        W  140   0.817   0.289   1.192 -0.1448 -0.2124 -0.0695
  141W        W  141   3.617   1.978   2.801  0.1346  0.0020  0.1370
  142W        W  142   1.773   1.342   1.763 -0.0660 -0.0125  0.1370
  143W        W  143   0.739   0.811   1.702  0.1564  0.1158 -0.1587
  144W        W  144   2.016   2.631   3.539  0.0009  0.0627  0.0304
  145W        W  145   0.704   3.478   2.416  0.0025  0.1825  0.0382
  146W        W  146   1.508   2.612   2.760 -0.0516  0.0968  0.1149
  147W        W  147   3.059   2.398   3.463  0.1577  0.2195  0.2275
  148W        W  148   2.318   3.117   0.632  0.0335  0.0070  0.0164
  149W        W  149   2.510   0.922   1.066  0.0659 -0.1435  0.0972
  150W        W  150   0.530   0.321   0.738 -0.1450  0.2212 -0.0396
  151W        W  151   1.386   3.251   1.756 -0.2407  0.0964  0.2133
  152W        W  152   1.747   3.299   3.068 -0.2367  0.0065 -0.3183
  153W        W  153   2.015   2.287   0.790  0.0630 -0.1376 -0.2774
  154W        W  154   0.864   3.319   1.425  0.1464  0.2556  0.2169
  155W        W  155   0.619   0.332   1.663 -0.1855  0.3319 -0.4695
  156W        W  156   2.240   2.659   0.489 -0.1085  0.0499  0.2041
  157W        W  157   1.940   1.830   3.228  0.0149 -0.0542  0.1114
  158W        W  158   2.156   2.680   1.655  0.0594  0.1168 -0.0386
  159W        W  159   1.482   0.510   3.354  0.1684 -0.2213 -0.0204
  160W        W  160   2.325   2.568   1.017 -0.0716  0.3066 -0.0450
  161W        W  161   2.856   1.922   2.712 -0.4932 -0.1693  0.1152
  162W        W  162   2.627   3.373   0.162 -0.0603  0.0855  0.0551
  163W        W  163   1.263   3.600   1.223  0.1892 -0.0186 -0.0892
  164W        W  164   2.544   1.676   0.374 -0.1819 -0.0438  0.2046
  165W        W  165   0.740   0.328   2.676 -0.1182 -0.0481  0.0782
  166W        W  166   1.764   0.961   3.098  0.0952 -0.0576 -0.3345
  167W        W  167   2.434   3.556   0.904 -0.0459 -0.0037 -0.1188
  168W        W  168   1.187   1.046   2.306  0.1915  0.1440 -0.2122
  169W        W  169   3.137   0.376   0.593  0.0740  0.3193 -0.1846
  170W        W  170   0.049   1.166   2.785 -0.1285 -0.0243 -0.1549
  171W        W  171   1.441   0.106   2.014  0.1285 -0.1971 -0.1045
  172W        W  172   2.987   3.416   3.425 -0.0255  0.3191  0.1481
  173W        W  173   1.695   0.235   1.461 -0.1842 -0.1066  0.1033
  174W        W  174   2.320   1.659   3.530  0.1837 -0.1300 -0.2857
  175W        W  175   1.187   1.947   0.623 -0.1835  0.0651 -0.0056
  176W        W  176   2.482   0.662   0.617 -0.0606 -0.0788  0.2835
  177W        W  177   1.328   3.440   3.196  0.1340  0.1586 -0.0044
  178W        W  178   3.089   1.714   0.121  0.0601  0.0268  0.0276
  179W        W  179   1.262   1.237   0.147  0.1233 -0.2798 -0.0871
  180W        W  180   0.320   2.177   1.932  0.2407 -0.1904  0.0913
  181W        W  181   3.188   0.757   3.383 -0.2160 -0.1441  0.0986
  182W        W  182   1.797   3.009   1.676 -0.1250 -0.0107  0.1872
  183W        W  183   2.767   0.836   2.833 -0.2633  0.0606 -0.1533
  184W        W  184   1.440   3.240   0.864  0.0057  0.2777  0.0479
  185W        W  185   0.787   2.818   3.575 -0.2839  0.0729 -0.0682
  186W        W  186   3.052   0.235   3.389  0.2692  0.0670  0.3201
  187W        W  187   0.120   2.209   2.388 -0.2531 -0.0502  0.0905
  188W        W  188   2.777   1.408   2.892 -0.4174  0.0193  0.0852
  189W        W  189   3.310   0.757   0.801  0.0062  0.2470  0.0377
  190W        W  190   0.928   1.080   1.268 -0.0244  0.3034 -0.0563
  191W        W  191   2.595   2.571   3.603 -0.0558 -0.0210 -0.2165
  192W        W  192   0.697   0.026   0.322 -0.1351  0.1459 -0.1126
  193W        W  193   2.721   2.936   0.856  0.0014  0.0665 -0.1709
  194W        W  194   0.400   2.419   0.042 -0.0717  0.1797 -0.1616
  195W        W  195   1.308   2.032   1.983 -0.3895 -0.2701  0.3544
  196W        W  196   0.986   1.471   0.625 -0.0031 -0.3255 -0.1041
  197W        W  197   3.054   0.163   1.064 -0.3124 -0.2927  0.1098
  198W        W  198   2.926   1.544   1.204 -0.0989  0.1556  0.1195
  199W        W  199   1.096   2.558   1.279  0.1827  0.0428 -0.0807
  200W        W  200   1.995   1.695   2.126 -0.1569 -0.0374 -0.3133
  201W        W  201   2.877   2.353   0.940  0.1664  0.0093 -0.0289
  202W        W  202   1.223   2.191   3.611  0.1668  0.3408  0.2002
  203W        W  203   2.576   0.713   1.528 -0.2111 -0.0341  0.0818
  204W        W  204   2.150   1.817   0.648 -0.0808 -0.2208  0.2349
  205W        W  205   2.463   3.174   3.241 -0.1938  0.0716 -0.2223
  206W        W  206   0.464   0.657   2.194  0.0041  0.0882 -0.2830
  207W        W  207   3.335   3.561   2.435 -0.3547 -0.1497  0.0656
  208W        W  208   2.061   0.602   2.453  0.3222  0.2154  0.0814
  209W        W  209   3.575   2.785   2.560  0.2681 -0.1914 -0.4350
  210W        W  210   2.858   3.395   0.656  0.1642  0.1243 -0.2333
  211W        W  211   0.066   2.507   0.988  0.0214 -0.0915 -0.1386
  212W        W  212   3.101   2.581   1.589 -0.2812  0.0948 -0.1003
  213W        W  213   2.961   2.457   0.355  0.0869  0.0885  0.2006
  214W        W  214   0.538   0.072   3.456  0.2426 -0.0215 -0.0826
  215W        W  215   3.179   2.926   0.630  0.1019  0.0007 -0.1029
  216W        W  216   0.300   2.092   3.196  0.2330  0.0498 -0.0453
  217W        W  217   3.621   0.410   0.608 -0.2404 -0.0194  0.2008
  218W        W  218   2.822   3.316   1.223  0.4040 -0.0694  0.0969
  219W        W  219   1.686   0.702   1.629  0.1890 -0.2771  0.3952
  220W        W  220   3.589   2.974   1.298 -0.2513 -0.1876 -0.3698
  221W        W  221   2.188   3.572   0.398  0.5282 -0.0262  0.1318
  222W        W  222   1.648   1.455   3.031 -0.0369 -0.1028 -0.0944
  223W        W  223   2.470   1.148   2.502 -0.0651  0.3160  0.0064
  224W        W  224   0.484   1.861   2.406  0.0175  0.0712  0.0047
  225W        W  225   1.458   1.814   3.391  0.2049 -0.3459  0.3744
  226W        W  226   1.394   1.702   0.223  0.2545  0.4187  0.0791
  227W        W  227   2.904   1.756   3.203 -0.0071 -0.0408  0.1001
  228W        W  228   2.919   0.589   0.161  0.1093  0.1190 -0.1699
  229W        W  229   1.154   2.058   1.391  0.0461  0.2175  0.5902
  230W        W  230   1.744   1.403   0.445  0.0554 -0.1805  0.1146
  231W        W  231   0.610   3.092   2.825 -0.2225  0.0416  0.2553
  232W        W  232   0.925   2.952   0.445 -0.1676  0.0511  0.2348
  233W        W  233   3.623   0.690   2.127 -0.0609  0.3018  0.0841
  234W        W  234   1.764   2.643   0.418  0.0312 -0.3842  0.1101
  235W        W  235   1.816   2.649   1.280  0.1541  0.0547  0.0678
  236W        W  236   1.528   1.374   2.137 -0.1731 -0.0323 -0.1993
  237W        W  237   2.293   3.046   1.227 -0.0892 -0.1421  0.1209
  238W        W  238   1.922   2.335   2.952  0.1108 -0.4093  0.1290
  239W        W  239   2.988   0.951   0.491 -0.2020 -0.0891  0.2832
  240W        W  240   2.193   3.122   1.926 -0.0882 -0.3328  0.1423
  241W        W  241   2.580   1.282   0.693  0.0117 -0.1809 -0.1749
  242W        W  242   3.465   2.255   1.765 -0.2316 -0.1923  0.0665
  243W        W  243   2.447   0.692   0.056  0.4009  0.0100  0.1616
  244W        W  244   3.364   3.086   2.234  0.0404 -0.1114  0.0513
  245W        W  245   2.055   1.051   2.234 -0.0705 -0.2528  0.3017
  246W        W  246   0.658   1.773   2.952  0.2828  0.0747 -0.0139
  247W        W  247   2.539   2.972   2.424  0.0870  0.0918 -0.1127
  248W        W  248   3.080   0.370   1.556 -0.0671 -0.1323  0.0547
  249W        W  249   0.782   3.257   3.243 -0.3589 -0.3111  0.2303
  250W        W  250   3.478   1.183   0.535 -0.3346 -0.3784  0.0246
  251W        W  251   0.708   2.370   2.297 -0.0096  0.1009 -0.0800
  252W        W  252   1.081   0.426   0.588  0.1144 -0.0149  0.0529
  253W        W  253   2.929   3.605   2.810 -0.0060  0.1691  0.1696
  254W        W  254   1.855   3.500   1.753  0.0455  0.1295 -0.0165
  255W        W  255   1.100   0.615   2.429 -0.0981 -0.3722 -0.0625
  256W        W  256   1.141   1.569   3.024  0.0186  0.1986  0.2415
  257W        W  257   1.082   3.235   3.629 -0.1623 -0.2953  0.1974
  258W        W  258   0.735   0.490   0.030  0.0535 -0.1398  0.0363
  259W        W  259   2.595   2.631   1.890  0.1596 -0.2648  0.0771
  260W        W  260   2.204   1.065   1.704  0.2773 -0.0879  0.5573
  261W        W  261   0.299   1.943   0.156  0.2095  0.1124 -0.1300
  262W        W  262   0.981   0.752   3.270  0.0956 -0.1587 -0.0824
  263W        W  263   0.395   3.184   1.110  0.1322 -0.0324  0.1651
  264W        W  264   3.250   1.653   2.886 -0.0883  0.0690 -0.0235
  265W        W  265   2.730   0.055   1.868 -0.3786 -0.1298  0.1878
  266W        W  266   1.485   2.227   0.931  0.0362 -0.1039 -0.1670
  267W        W  267   1.144   1.063   1.768 -0.2245 -0.1849 -0.0073
  268W        W  268   2.537   0.631   2.408  0.0703 -0.1558  0.0118
  269W        W  269   1.680   3.504   0.528 -0.2393 -0.1458  0.3795
  270W        W  270   2.227   1.290   2.958  0.2408  0.2235  0.1437
  271W        W  271   1.390   1.419   2.619  0.0455  0.1838 -0.1025
  272W        W  272   1.565   0.433   2.431 -0.3448  0.0448 -0.2902
  273W        W  273   2.952   0.075   0.250  0.2433  0.1168 -0.0699
  274W        W  274   2.464   0.021   3.192  0.3006 -0.1914  0.1301
  275W        W  275   2.848   2.277   2.339 -0.0744  0.1245 -0.0241
  276W        W  276   1.219   0.211   0.099 -0.0204 -0.0081  0.0799
  277W        W  277   0.468   2.649   3.213  0.0015 -0.1035 -0.0398
  278W        W  278   1.406   2.586   1.619  0.1602 -0.1817 -0.0994
  279W        W  279   3.376   1.111   2.289  0.0049  0.2434 -0.2320
  280W        W  280   0.625   3.607   2.948  0.1527 -0.0134  0.1998
  281W        W  281   1.859   0.473   1.993  0.1533 -0.1956 -0.0321
  282W        W  282   3.355   1.225   0.097 -0.0399 -0.0775 -0.2548
  283W        W  283   3.170   2.730   1.089 -0.0487  0.0316 -0.0867
  284W        W  284   0.561   2.723   1.319  0.2883  0.0154  0.0493
  285W        W  285   1.997   0.459   0.654 -0.2116 -0.0481  0.0183
  286W        W  286   2.579   0.351   2.825 -0.1861  0.2316 -0.3316
  287W        W  287   1.931   1.180   1.237  0.1618  0.0567  0.0327
  288W        W  288   0.413   0.748   0.484  0.0775  0.2264  0.2472
  289W        W  289   1.414   2.982   1.315 -0.1452 -0.0221 -0.0847
  290W        W  290   2.261   0.125   1.956 -0.1258  0.1687 -0.2805
  291W        W  291   2.338   1.545   1.087  0.0536 -0.1536  0.1376
  292W        W  292   0.170   2.650   2.175  0.0426 -0.0443  0.0175
  293W        W  293   0.348   1.079   1.827 -0.2468 -0.0630 -0.1276
  294W        W  294   1.252   1.611   1.621  0.5122  0.2696 -0.1562
  295W        W  295   0.800   2.889   2.282 -0.1581  0.1030  0.0209
  296W        W  296   1.154   1.585   1.118 -0.1055 -0.1700 -0.0199
  297W        W  297   0.616   3.512   1.909  0.2268 -0.0545  0.0607
  298W        W  298   0.779   1.238   3.117 -0.1013 -0.0738  0.0592
  299W        W  299   0.190   1.814   1.605 -0.1904 -0.1470  0.0600
  300W        W  300   3.111   1.322   1.664 -0.3237  0.0482 -0.3846
  301W        W  301   3.343   3.212   2.763  0.0145  0.1932 -0.0883
  302W        W  302   2.123   1.117   0.805  0.1376  0.0277 -0.0665
  303W        W  303   1.240   0.726   0.146  0.0999  0.3193 -0.3661
  304W        W  304   0.254   1.124   2.323  0.4258 -0.0352 -0.0193
  305W        W  305   2.716   2.077   0.082  0.2365  0.1824  0.0905
  306W        W  306   0.532   1.624   3.399 -0.2673  0.1334  0.1041
  307W        W  307   1.580   0.896   2.058 -0.2297 -0.0792 -0.0306
  308W        W  308   1.309   2.855   2.290 -0.1929 -0.1425  0.0148
  309W        W  309   3.620   3.499   0.063 -0.4147 -0.0181 -0.1841
  310W        W  310   2.198   1.541   1.523 -0.0775 -0.2126 -0.2057
  311W        W  311   0.126   0.877   0.906 -0.3572  0.1905 -0.0930
  312W        W  312   2.875   0.614   0.980 -0.0847 -0.0379 -0.1695
  313W        W  313   3.079   0.491   2.987 -0.0615  0.2034 -0.0815
  314W        W  314   0.102   0.712   2.589  0.0926  0.0754  0.0372
  315W        W  315   2.405   0.194   0.056  0.2334 -0.0066  0.0434
  316W        W  316   1.929   1.400   2.596  0.0556 -0.1577  0.4162
  317W        W  317   2.311   3.431   1.550 -0.1655 -0.0382  0.2459
  318W        W  318   1.785   3.343   1.284  0.3439 -0.2493 -0.3784
  319W        W  319   3.258   1.926   2.342  0.2197 -0.0149 -0.1408
  320W        W  320   0.003   0.646   1.647 -0.0003 -0.3337 -0.2333
  321W        W  321   3.202   0.838   1.840 -0.2030  0.2566  0.1626
  322W        W  322   3.081   1.978   1.424 -0.2540 -0.0575 -0.0177
  323W        W  323   0.975   2.514   3.234 -0.3216  0.0732 -0.3420
  324W        W  324   1.057   3.309   2.114  0.0181 -0.2543 -0.2640
  325W        W  325   2.420   1.615   2.529  0.0227  0.2681 -0.2161
  326W        W  326   2.043   0.013   2.826  0.3915 -0.0056 -0.0079
  327W        W  327   2.997   2.879   2.010  0.0274  0.1565  0.0630
  328W        W  328   1.362   2.693   3.614  0.0920  0.2096 -0.2350
  329W        W  329   2.709   0.244   0.643 -0.0685 -0.0394 -0.1588
  330W        W  330   3.134   3.057   1.541  0.1271 -0.0326 -0.0810
  331W        W  331   1.773   0.104   3.223 -0.2197 -0.1657 -0.0286
  332W        W  332   3.169   3.458   1.954 -0.2417  0.0397  0.1405
  333W        W  333   2.302   3.007   0.037 -0.1943 -0.3191  0.0357
  334W        W  334   2.419   1.791   3.039  0.2712 -0.1553 -0.0031
  335W        W  335   2.650   1.062   3.278  0.1892 -0.0838  0.3115
  336W        W  336   2.782   1.696   1.733 -0.1273 -0.1190 -0.0836
  337W        W  337   2.173   2.219   2.286  0.1388 -0.0087  0.0109
  338W        W  338   0.513   2.646   0.800  0.1186 -0.0431  0.0460
  339W        W  339   0.319   3.144   2.351  0.2414  0.2068  0.1060
  340W        W  340   0.119   0.787   3.498 -0.0302 -0.0310  0.1203
  341W        W  341   1.570   0.795   0.568 -0.3099 -0.0961  0.1490
  342W        W  342   3.417   1.589   1.320 -0.0465  0.0211  0.2517
  343W        W  343   1.613   1.823   2.417  0.3201  0.1413  0.0830
  344W        W  344   2.453   2.249   2.721  0.0056 -0.2472  0.1041
  345W        W  345   1.150   3.524   0.508 -0.0405 -0.0445 -0.2397
  346W        W  346   0.527   2.210   0.542 -0.1697 -0.2020  0.0795
  347W        W  347   2.360   2.670   3.071  0.1788 -0.2739  0.0433
  348W        W  348   0.789   1.968   1.931 -0.1081  0.0414 -0.2025
  349W        W  349   1.057   0.098   1.703  0.3719  0.1261  0.1478
  350W        W  350   2.686   1.876   0.917  0.0608 -0.1585  0.0423
  351W        W  351   1.045   1.556   3.532 -0.4770  0.0021 -0.1164
  352W        W  352   2.983   2.204   1.842 -0.0162  0.0940 -0.1951
  353W        W  353   1.275   0.532   1.923  0.0631  0.1459 -0.0381
  354W        W  354   0.753   3.512   0.906  0.1563  0.0735 -0.0831
  355W        W  355   0.339   0.869   1.373 -0.0185  0.3360  0.3396
  356W        W  356   2.050   0.695   1.301  0.0605  0.0593 -0.0908
  357W        W  357   1.670   2.208   1.425  0.0203  0.1119 -0.0762
  358W        W  358   0.481   2.176   1.088  0.1430  0.0433 -0.0424
  359W        W  359   2.656   2.709   1.379 -0.0386 -0.2089  0.0847
  360W        W  360   3.629   3.086   0.296 -0.0212  0.0076  0.2542
  361W        W  361   3.569   2.397   3.409 -0.1226 -0.0501 -0.0011
  362W        W  362   0.979   2.389   0.754 -0.2009  0.1731  0.4179
  363W        W  363   1.768   0.328   0.212 -0.2437  0.1329  0.1000
  364W        W  364   1.542   1.941   2.868  0.2318 -0.1627  0.1522
  365W        W  365   3.528   2.918   1.844 -0.1010 -0.0484  0.3565
  366W        W  366   2.061   3.189   2.379 -0.3277 -0.2824  0.2098
  367W        W  367   0.271   3.352   3.267 -0.1350 -0.0951  0.2494
  368W        W  368   0.401   1.609   1.989 -0.4019 -0.0291  0.1698
  369W        W  369   2.226   2.010   1.246 -0.1186 -0.0324 -0.1696
  370W        W  370   0.272   1.196   0.309  0.1144  0.0817 -0.2947
  371W        W  371   2.729   1.269   0.194  0.0804 -0.1546 -0.0878
  372W        W  372   2.599   0.512   3.265  0.1161  0.0725 -0.3139
  373W        W  373   3.225   1.001   2.812 -0.0500  0.1909 -0.3994
  374W        W  374   0.102   2.063   0.730 -0.4787 -0.1226  0.0000
  375W        W  375   0.783   1.353   1.672 -0.1530  0.1245  0.5028
  376W        W  376   0.107   1.510   3.561 -0.0560 -0.2486 -0.0420
  377W        W  377   0.129   0.226   2.342  0.4469 -0.1384  0.0865
  378W        W  378   3.366   2.190   0.194  0.1541  0.1883  0.2833
  379W        W  379   0.539   3.187   0.626  0.3247 -0.3844 -0.0440
  380W        W  380   0.449   1.418   2.689  0.1860  0.1885  0.0950
  381W        W  381   1.213   2.317   2.425  0.3055 -0.2591  0.0723
  382W        W  382   0.087   3.350   1.911 -0.2211 -0.1504  0.0553
  383W        W  383   3.397   0.511   1.214 -0.0726  0.0263  0.0704
  384W        W  384   3.595   1.370   1.832  0.2511 -0.2844 -0.1856
  385W        W  385   1.893   0.036   2.284 -0.4893 -0.1015  0.0621
  386W        W  386   3.530   1.710   0.438 -0.1165 -0.0493 -0.3629
  387W        W  387   0.110   1.600   3.083 -0.0793 -0.1430 -0.0174
  388W        W  388   0.531   0.575   3.147  0.0309  0.1873 -0.1638
  389W        W  389   3.427   3.274   3.231 -0.3762  0.1841 -0.4287
  390W        W  390   3.439   0.029   2.907  0.1534  0.0363  0.1894
  391W        W  391   1.336   1.133   3.290  0.3151  0.0150  0.1299
  392W        W  392   1.992   0.103   1.052 -0.0667  0.2818 -0.3232
  393W        W  393   0.033   2.990   0.808  0.1229  0.1227  0.0115
  394W        W  394   1.535   0.283   0.805  0.2177 -0.0746 -0.1119
  395W        W  395   0.967   3.085   0.984  0.0762 -0.3319  0.0876
  396W        W  396   1.726   2.278   2.496 -0.1383 -0.3207 -0.1161
  397W        W  397   1.413   3.079   0.352 -0.0131  0.2683  0.4062
  398W        W  398   1.683   3.070   3.537 -0.0104 -0.1076 -0.0727
  399W        W  399   0.294   0.367   1.203  0.1227 -0.0777 -0.2262
  400W        W  400   0.543   2.660   1.863 -0.1210 -0.0869  0.1226
   3.63054   3.63054   3.63054
